Program Version,EnergyPlus, Version 8.9.0-eba93e8e1b, YMD=2018.08.06 21:49
1,5,Environment Title[],Latitude[deg],Longitude[deg],Time Zone[],Elevation[m]
2,8,Day of Simulation[],Month[],Day of Month[],DST Indicator[1=yes 0=no],Hour[],StartMinute[],EndMinute[],DayType
3,5,Cumulative Day of Simulation[],Month[],Day of Month[],DST Indicator[1=yes 0=no],DayType  ! When Daily Report Variables Requested
4,2,Cumulative Days of Simulation[],Month[]  ! When Monthly Report Variables Requested
5,1,Cumulative Days of Simulation[] ! When Run Period Report Variables Requested
6,1,Calendar Year of Simulation[] ! When Annual Report Variables Requested
7,9,Environment,Site Outdoor Air Drybulb Temperature [C] !Monthly [Value,Min,Day,Hour,Minute,Max,Day,Hour,Minute]
8,1,Environment,Site Outdoor Air Wetbulb Temperature [C] !TimeStep
555,1,BACK_SPACE ZN,Zone Air Temperature [C] !Hourly
556,7,BACK_SPACE ZN,Zone Air Relative Humidity [%] !Daily [Value,Min,Hour,Minute,Max,Hour,Minute]
595,1,CORE_RETAIL ZN,Zone Air Temperature [C] !Hourly
596,7,CORE_RETAIL ZN,Zone Air Relative Humidity [%] !Daily [Value,Min,Hour,Minute,Max,Hour,Minute]
635,1,FRONT_ENTRY ZN,Zone Air Temperature [C] !Hourly
636,7,FRONT_ENTRY ZN,Zone Air Relative Humidity [%] !Daily [Value,Min,Hour,Minute,Max,Hour,Minute]
675,1,FRONT_RETAIL ZN,Zone Air Temperature [C] !Hourly
676,7,FRONT_RETAIL ZN,Zone Air Relative Humidity [%] !Daily [Value,Min,Hour,Minute,Max,Hour,Minute]
715,1,POINT_OF_SALE ZN,Zone Air Temperature [C] !Hourly
716,7,POINT_OF_SALE ZN,Zone Air Relative Humidity [%] !Daily [Value,Min,Hour,Minute,Max,Hour,Minute]
10,1,Electricity:Facility [J] !TimeStep
321,1,Gas:Facility [J] !TimeStep
End of Data Dictionary
1,BOISE AIR TERMINAL  UO ANN CLG .4% CONDNS DB=>MWB,  43.62,-116.21,  -7.00, 701.00
2,1, 7,21, 0, 1, 0.00,10.00,SummerDesignDay
8,13.123825557408376
10,31291062.699224954
321,1116073.2494298539
2,1, 7,21, 0, 1,10.00,20.00,SummerDesignDay
8,13.06080920355933
10,33147907.93320989
321,1116073.2494298539
2,1, 7,21, 0, 1,20.00,30.00,SummerDesignDay
8,12.997636615088969
10,32815157.68090214
321,1116073.2494298539
2,1, 7,21, 0, 1,30.00,40.00,SummerDesignDay
8,12.93433229193234
10,33080333.66839242
321,1116073.2494298539
2,1, 7,21, 0, 1,40.00,50.00,SummerDesignDay
8,12.870870750739659
10,33044798.821992045
321,1116073.2494298539
2,1, 7,21, 0, 1,50.00,60.00,SummerDesignDay
8,12.807276262509518
10,33044643.676523039
321,1116073.2494298539
2,1, 7,21, 0, 1, 0.00,60.00,SummerDesignDay
555,28.977002119184946
595,29.715604714523655
635,29.226235939247
675,29.34215570620528
715,29.532853040413234
2,1, 7,21, 0, 2, 0.00,10.00,SummerDesignDay
8,12.764787626872638
10,33047886.480836698
321,1116073.2494298539
2,1, 7,21, 0, 2,10.00,20.00,SummerDesignDay
8,12.722246763789187
10,31291062.699224954
321,1116073.2494298539
2,1, 7,21, 0, 2,20.00,30.00,SummerDesignDay
8,12.679637060845338
10,33194832.608620928
321,1116073.2494298539
2,1, 7,21, 0, 2,30.00,40.00,SummerDesignDay
8,12.636952781000439
10,32830265.132278339
321,1116073.2494298539
2,1, 7,21, 0, 2,40.00,50.00,SummerDesignDay
8,12.594216204939805
10,33112221.173558486
321,1116073.2494298539
2,1, 7,21, 0, 2,50.00,60.00,SummerDesignDay
8,12.551410360630703
10,33072828.690412374
321,1116073.2494298539
2,1, 7,21, 0, 2, 0.00,60.00,SummerDesignDay
555,29.159072917795517
595,29.89906291250143
635,29.208423302031766
675,29.45707377427304
715,29.53715847452564
2,1, 7,21, 0, 3, 0.00,10.00,SummerDesignDay
8,12.519253427421367
10,37829913.36323625
321,1116073.2494298539
2,1, 7,21, 0, 3,10.00,20.00,SummerDesignDay
8,12.48707242326124
10,45162930.518860708
321,3016914.96901053
2,1, 7,21, 0, 3,20.00,30.00,SummerDesignDay
8,12.45485077901181
10,41245709.84012302
321,1116073.2494298539
2,1, 7,21, 0, 3,30.00,40.00,SummerDesignDay
8,12.42259213739141
10,42514051.81773594
321,1116073.2494298539
2,1, 7,21, 0, 3,40.00,50.00,SummerDesignDay
8,12.390286557762094
10,42143351.590196918
321,1116073.2494298539
2,1, 7,21, 0, 3,50.00,60.00,SummerDesignDay
8,12.357956894760659
10,42386603.50851307
321,1116073.2494298539
2,1, 7,21, 0, 3, 0.00,60.00,SummerDesignDay
555,29.282038177808205
595,29.563469027696756
635,29.158316645897455
675,29.520004706856029
715,29.53630738749298
2,1, 7,21, 0, 4, 0.00,10.00,SummerDesignDay
8,12.325586324456817
10,33091475.02073067
321,1116073.2494298539
2,1, 7,21, 0, 4,10.00,20.00,SummerDesignDay
8,12.293178058083525
10,33088121.04975333
321,1116073.2494298539
2,1, 7,21, 0, 4,20.00,30.00,SummerDesignDay
8,12.260723081750144
10,33088206.74522848
321,1116073.2494298539
2,1, 7,21, 0, 4,30.00,40.00,SummerDesignDay
8,12.22824337400953
10,31291062.699224954
321,1116073.2494298539
2,1, 7,21, 0, 4,40.00,50.00,SummerDesignDay
8,12.195722680495744
10,45305527.609853018
321,2039087.2912538769
2,1, 7,21, 0, 4,50.00,60.00,SummerDesignDay
8,12.16316398292603
10,39300091.411172
321,1116073.2494298539
2,1, 7,21, 0, 4, 0.00,60.00,SummerDesignDay
555,29.363897600050536
595,29.68994991325842
635,29.082749525032044
675,29.54509861005333
715,29.53515230475765
2,1, 7,21, 0, 5, 0.00,10.00,SummerDesignDay
8,12.141427936841455
10,43823524.22863192
321,1116073.2494298539
2,1, 7,21, 0, 5,10.00,20.00,SummerDesignDay
8,12.119684467518514
10,42898266.06617817
321,1116073.2494298539
2,1, 7,21, 0, 5,20.00,30.00,SummerDesignDay
8,12.09792774884633
10,42909825.970120068
321,1116073.2494298539
2,1, 7,21, 0, 5,30.00,40.00,SummerDesignDay
8,12.076150618847568
10,42930334.75472656
321,1116073.2494298539
2,1, 7,21, 0, 5,40.00,50.00,SummerDesignDay
8,12.054356526469642
10,31291062.699224954
321,1116073.2494298539
2,1, 7,21, 0, 5,50.00,60.00,SummerDesignDay
8,12.03254572305053
10,33238932.39712699
321,1116073.2494298539
2,1, 7,21, 0, 5, 0.00,60.00,SummerDesignDay
555,29.424220473127538
595,29.512734585737446
635,29.00367722961683
675,29.551997493157886
715,29.53432768098446
2,1, 7,21, 0, 6, 0.00,10.00,SummerDesignDay
8,12.054356526469642
10,32870427.26959252
321,1116073.2494298539
2,1, 7,21, 0, 6,10.00,20.00,SummerDesignDay
8,12.076150618847568
10,33153820.033354056
321,1116073.2494298539
2,1, 7,21, 0, 6,20.00,30.00,SummerDesignDay
8,12.09792774884633
10,36489068.88166428
321,1116073.2494298539
2,1, 7,21, 0, 6,30.00,40.00,SummerDesignDay
8,12.119684467518514
10,45634178.46799571
321,1116073.2494298539
2,1, 7,21, 0, 6,40.00,50.00,SummerDesignDay
8,12.141427936841455
10,37474300.010210018
321,1116073.2494298539
2,1, 7,21, 0, 6,50.00,60.00,SummerDesignDay
8,12.16316398292603
10,40582929.67845608
321,1116073.2494298539
2,1, 7,21, 0, 6, 0.00,60.00,SummerDesignDay
555,29.476082300004966
595,29.73715523099786
635,28.97816176468064
675,29.58144574390356
715,29.534993669349008
2,1, 7,21, 0, 7, 0.00,10.00,SummerDesignDay
8,12.239071814947938
10,69489517.52525091
321,1116073.2494298539
2,1, 7,21, 0, 7,10.00,20.00,SummerDesignDay
8,12.314787664270284
10,68782188.4402278
321,1116073.249429854
2,1, 7,21, 0, 7,20.00,30.00,SummerDesignDay
8,12.390286557762094
10,67839183.37539518
321,1116073.2494298539
2,1, 7,21, 0, 7,30.00,40.00,SummerDesignDay
8,12.465595633366315
10,64173747.13422938
321,1116073.2494298539
2,1, 7,21, 0, 7,40.00,50.00,SummerDesignDay
8,12.540698587109305
10,58736037.47239154
321,1116073.2494298539
2,1, 7,21, 0, 7,50.00,60.00,SummerDesignDay
8,12.615591100677957
10,56426798.38416766
321,1116073.2494298539
2,1, 7,21, 0, 7, 0.00,60.00,SummerDesignDay
555,27.235494598010729
595,27.21590207456587
635,29.30612084607748
675,26.879496658613758
715,26.803735792333169
2,1, 7,21, 0, 8, 0.00,10.00,SummerDesignDay
8,12.796662566522715
10,70138578.03381624
321,1116073.249429854
2,1, 7,21, 0, 8,10.00,20.00,SummerDesignDay
8,12.97655357917075
10,69743121.74902952
321,1116073.2494298539
2,1, 7,21, 0, 8,20.00,30.00,SummerDesignDay
8,13.155281375506805
10,68815965.40326128
321,1116073.2494298539
2,1, 7,21, 0, 8,30.00,40.00,SummerDesignDay
8,13.332874210920233
10,68344092.47125988
321,1116073.2494298539
2,1, 7,21, 0, 8,40.00,50.00,SummerDesignDay
8,13.509317447495139
10,63846940.505702238
321,1116073.2494298539
2,1, 7,21, 0, 8,50.00,60.00,SummerDesignDay
8,13.684648175663849
10,62700248.48911388
321,1116073.2494298539
2,1, 7,21, 0, 8, 0.00,60.00,SummerDesignDay
555,24.961740604281485
595,24.536597083127096
635,29.52502192025855
675,24.139068956689355
715,24.041599958803329
2,1, 7,21, 0, 9, 0.00,10.00,SummerDesignDay
8,13.879273817704688
10,61410546.613347608
321,1116073.249429854
2,1, 7,21, 0, 9,10.00,20.00,SummerDesignDay
8,14.07253563233075
10,61079010.01778981
321,1116073.2494298539
2,1, 7,21, 0, 9,20.00,30.00,SummerDesignDay
8,14.264433188235332
10,60688146.744824
321,1116073.2494298539
2,1, 7,21, 0, 9,30.00,40.00,SummerDesignDay
8,14.454976200841584
10,60672778.38072631
321,1116073.2494298539
2,1, 7,21, 0, 9,40.00,50.00,SummerDesignDay
8,14.644200413919858
10,60465049.67348926
321,1116073.2494298539
2,1, 7,21, 0, 9,50.00,60.00,SummerDesignDay
8,14.832108528714168
10,60404247.049856778
321,1116073.2494298539
2,1, 7,21, 0, 9, 0.00,60.00,SummerDesignDay
555,23.893497762324644
595,23.886790392599733
635,27.668757402740046
675,23.88821785709914
715,23.888581882389845
2,1, 7,21, 0,10, 0.00,10.00,SummerDesignDay
8,14.999122488522535
10,60567723.76739816
321,1116073.2494298539
2,1, 7,21, 0,10,10.00,20.00,SummerDesignDay
8,15.165105135914186
10,60689182.04833867
321,1116073.2494298539
2,1, 7,21, 0,10,20.00,30.00,SummerDesignDay
8,15.330077739543999
10,60894657.421306449
321,1116073.2494298539
2,1, 7,21, 0,10,30.00,40.00,SummerDesignDay
8,15.494027680167145
10,61174260.541213568
321,1116073.2494298539
2,1, 7,21, 0,10,40.00,50.00,SummerDesignDay
8,15.656987433235772
10,61514658.001011949
321,1116073.2494298539
2,1, 7,21, 0,10,50.00,60.00,SummerDesignDay
8,15.818944154640589
10,61998712.94083688
321,1116073.2494298539
2,1, 7,21, 0,10, 0.00,60.00,SummerDesignDay
555,23.888566149180777
595,23.888496256414315
635,29.374771142035795
675,23.889053513001458
715,23.889152506265974
2,1, 7,21, 0,11, 0.00,10.00,SummerDesignDay
8,15.96104323461097
10,62536496.9666557
321,1116073.2494298539
2,1, 7,21, 0,11,10.00,20.00,SummerDesignDay
8,16.10237635281076
10,63094518.69615714
321,1116073.2494298539
2,1, 7,21, 0,11,20.00,30.00,SummerDesignDay
8,16.242958286260387
10,63670216.4729075
321,1116073.2494298539
2,1, 7,21, 0,11,30.00,40.00,SummerDesignDay
8,16.382792192542924
10,64262426.94187016
321,1116073.2494298539
2,1, 7,21, 0,11,40.00,50.00,SummerDesignDay
8,16.521899238056564
10,64872319.333584699
321,1116073.2494298539
2,1, 7,21, 0,11,50.00,60.00,SummerDesignDay
8,16.660255709936977
10,65506459.58472524
321,1116073.2494298539
2,1, 7,21, 0,11, 0.00,60.00,SummerDesignDay
555,23.888936900567857
595,23.888788239644659
635,31.434245870259628
675,23.889163025266908
715,23.889168320078125
2,1, 7,21, 0,12, 0.00,10.00,SummerDesignDay
8,16.752109589104703
10,66000171.33239895
321,1116073.2494298539
2,1, 7,21, 0,12,10.00,20.00,SummerDesignDay
8,16.843623681683558
10,66475711.26130852
321,1116073.2494298539
2,1, 7,21, 0,12,20.00,30.00,SummerDesignDay
8,16.934815879417355
10,66962804.19955717
321,1116073.2494298539
2,1, 7,21, 0,12,30.00,40.00,SummerDesignDay
8,17.025713235581116
10,67444218.6294973
321,1116073.2494298539
2,1, 7,21, 0,12,40.00,50.00,SummerDesignDay
8,17.116276756816878
10,67905857.34643868
321,1116073.2494298539
2,1, 7,21, 0,12,50.00,60.00,SummerDesignDay
8,17.206545581366926
10,68374358.17078983
321,1116073.2494298539
2,1, 7,21, 0,12, 0.00,60.00,SummerDesignDay
555,23.888391595999186
595,23.888041374650724
635,33.16018604098254
675,23.88861370966053
715,23.88862622717858
2,1, 7,21, 0,13, 0.00,10.00,SummerDesignDay
8,17.27852000283795
10,68759356.25521544
321,1116073.2494298539
2,1, 7,21, 0,13,10.00,20.00,SummerDesignDay
8,17.350293565006365
10,69174823.42834944
321,1116073.2494298539
2,1, 7,21, 0,13,20.00,30.00,SummerDesignDay
8,17.42189432796144
10,69536062.33984208
321,1116073.2494298539
2,1, 7,21, 0,13,30.00,40.00,SummerDesignDay
8,17.493273881392939
10,69916865.71883345
321,1116073.2494298539
2,1, 7,21, 0,13,40.00,50.00,SummerDesignDay
8,17.564460265534128
10,70282141.44957614
321,1116073.2494298539
2,1, 7,21, 0,13,50.00,60.00,SummerDesignDay
8,17.63546993748817
10,70638494.2065884
321,1116073.2494298539
2,1, 7,21, 0,13, 0.00,60.00,SummerDesignDay
555,23.888593358524429
595,23.888257989013018
635,35.07220623919225
675,23.888612183783363
715,23.888711074342557
2,1, 7,21, 0,14, 0.00,10.00,SummerDesignDay
8,17.679742913835857
10,70870383.46855054
321,1116073.2494298539
2,1, 7,21, 0,14,10.00,20.00,SummerDesignDay
8,17.723937879470229
10,71089104.724162
321,1116073.2494298539
2,1, 7,21, 0,14,20.00,30.00,SummerDesignDay
8,17.768056692213663
10,71294117.63354656
321,1116073.2494298539
2,1, 7,21, 0,14,30.00,40.00,SummerDesignDay
8,17.812122071148509
10,71485337.0528702
321,1116073.2494298539
2,1, 7,21, 0,14,40.00,50.00,SummerDesignDay
8,17.856091194477629
10,71663136.71534306
321,1116073.2494298539
2,1, 7,21, 0,14,50.00,60.00,SummerDesignDay
8,17.899988058032755
10,71844761.35622305
321,1116073.2494298539
2,1, 7,21, 0,14, 0.00,60.00,SummerDesignDay
555,23.888413772442644
595,23.888082018308965
635,36.077046051950699
675,23.88846215685646
715,23.88844052707059
2,1, 7,21, 0,15, 0.00,10.00,SummerDesignDay
8,17.899988058032755
10,71803038.3667574
321,1116073.2494298539
2,1, 7,21, 0,15,10.00,20.00,SummerDesignDay
8,17.899988058032755
10,71740778.59099384
321,1116073.2494298539
2,1, 7,21, 0,15,20.00,30.00,SummerDesignDay
8,17.899988058032755
10,71660448.40766597
321,1116073.2494298539
2,1, 7,21, 0,15,30.00,40.00,SummerDesignDay
8,17.899988058032755
10,71563015.75904024
321,1116073.2494298539
2,1, 7,21, 0,15,40.00,50.00,SummerDesignDay
8,17.899988058032755
10,71449584.20847227
321,1116073.2494298539
2,1, 7,21, 0,15,50.00,60.00,SummerDesignDay
8,17.899988058032755
10,71320893.86696121
321,1116073.2494298539
2,1, 7,21, 0,15, 0.00,60.00,SummerDesignDay
555,23.888401226219487
595,23.88812252252181
635,36.415583661943859
675,23.888496540113523
715,23.888304551368493
2,1, 7,21, 0,16, 0.00,10.00,SummerDesignDay
8,17.84730250727605
10,70956005.56728792
321,1116073.2494298539
2,1, 7,21, 0,16,10.00,20.00,SummerDesignDay
8,17.794512318254957
10,70556767.79027018
321,1116073.2494298539
2,1, 7,21, 0,16,20.00,30.00,SummerDesignDay
8,17.741595434995238
10,70145443.97046337
321,1116073.2494298539
2,1, 7,21, 0,16,30.00,40.00,SummerDesignDay
8,17.688588334360948
10,69730216.10676481
321,1116073.2494298539
2,1, 7,21, 0,16,40.00,50.00,SummerDesignDay
8,17.63546993748817
10,69311792.45410642
321,1116073.2494298539
2,1, 7,21, 0,16,50.00,60.00,SummerDesignDay
8,17.58224570355222
10,68890036.57029055
321,1116073.2494298539
2,1, 7,21, 0,16, 0.00,60.00,SummerDesignDay
555,23.888398223827623
595,23.888183393670404
635,35.86090427900907
675,23.888557661122417
715,23.88859276001514
2,1, 7,21, 0,17, 0.00,10.00,SummerDesignDay
8,17.511089616145879
10,68390880.68461459
321,1116073.2494298539
2,1, 7,21, 0,17,10.00,20.00,SummerDesignDay
8,17.439756432109229
10,67890625.15180895
321,1116073.2494298539
2,1, 7,21, 0,17,20.00,30.00,SummerDesignDay
8,17.368226642791105
10,67389727.36528988
321,1116073.2494298539
2,1, 7,21, 0,17,30.00,40.00,SummerDesignDay
8,17.296480744187336
10,66880109.61946416
321,1116073.2494298539
2,1, 7,21, 0,17,40.00,50.00,SummerDesignDay
8,17.224558760150488
10,66371855.87543983
321,1116073.2494298539
2,1, 7,21, 0,17,50.00,60.00,SummerDesignDay
8,17.15243444960851
10,65872802.113897409
321,1116073.2494298539
2,1, 7,21, 0,17, 0.00,60.00,SummerDesignDay
555,23.888416880740239
595,23.88826594059157
635,34.704532443226067
675,23.88869127422578
715,23.88865864111989
2,1, 7,21, 0,18, 0.00,10.00,SummerDesignDay
8,17.06197783186197
10,65322230.501825619
321,1116073.2494298539
2,1, 7,21, 0,18,10.00,20.00,SummerDesignDay
8,16.971225417415238
10,64783838.1406721
321,1116073.2494298539
2,1, 7,21, 0,18,20.00,30.00,SummerDesignDay
8,16.880138180844886
10,64253018.63252143
321,1116073.2494298539
2,1, 7,21, 0,18,30.00,40.00,SummerDesignDay
8,16.78875478121888
10,63728864.8397253
321,1116073.2494298539
2,1, 7,21, 0,18,40.00,50.00,SummerDesignDay
8,16.69702886876595
10,63214265.97964731
321,1116073.2494298539
2,1, 7,21, 0,18,50.00,60.00,SummerDesignDay
8,16.605000774965164
10,62708796.458579439
321,1116073.2494298539
2,1, 7,21, 0,18, 0.00,60.00,SummerDesignDay
555,23.88846281406657
595,23.888367104292859
635,33.24991223065024
675,23.88881603532316
715,23.888726898091887
2,1, 7,21, 0,19, 0.00,10.00,SummerDesignDay
8,16.46633417352978
10,62054025.32282194
321,1116073.2494298539
2,1, 7,21, 0,19,10.00,20.00,SummerDesignDay
8,16.32695143117475
10,61413958.08801193
321,1116073.2494298539
2,1, 7,21, 0,19,20.00,30.00,SummerDesignDay
8,16.186817768200386
10,60777811.82060452
321,1116073.2494298539
2,1, 7,21, 0,19,30.00,40.00,SummerDesignDay
8,16.045927882647456
10,60161913.141787689
321,1116073.2494298539
2,1, 7,21, 0,19,40.00,50.00,SummerDesignDay
8,15.904295279523457
10,59537112.69997742
321,1116073.2494298539
2,1, 7,21, 0,19,50.00,60.00,SummerDesignDay
8,15.761899580205466
10,58929228.82599762
321,1116073.2494298539
2,1, 7,21, 0,19, 0.00,60.00,SummerDesignDay
555,23.888934125984425
595,23.88901350794767
635,31.319786242857238
675,23.889236871893137
715,23.889151926762865
2,1, 7,21, 0,20, 0.00,10.00,SummerDesignDay
8,15.656987433235772
10,58437588.38547642
321,1116073.2494298539
2,1, 7,21, 0,20,10.00,20.00,SummerDesignDay
8,15.55166022281646
10,57944057.342628169
321,1116073.2494298539
2,1, 7,21, 0,20,20.00,30.00,SummerDesignDay
8,15.445915129773204
10,57466246.55448609
321,1116073.2494298539
2,1, 7,21, 0,20,30.00,40.00,SummerDesignDay
8,15.339749780068289
10,56996992.880192007
321,1116073.2494298539
2,1, 7,21, 0,20,40.00,50.00,SummerDesignDay
8,15.233160805257628
10,56535888.48646166
321,1116073.2494298539
2,1, 7,21, 0,20,50.00,60.00,SummerDesignDay
8,15.126142962252374
10,56086942.08692615
321,1116073.2494298539
2,1, 7,21, 0,20, 0.00,60.00,SummerDesignDay
555,23.888561538877128
595,23.88858804637565
635,29.667121863361549
675,23.888959380887134
715,23.88878065137172
2,1, 7,21, 0,21, 0.00,10.00,SummerDesignDay
8,15.038265821150901
10,55693105.639474268
321,1116073.2494298539
2,1, 7,21, 0,21,10.00,20.00,SummerDesignDay
8,14.950108883575448
10,58149664.43782818
321,1116073.2494298539
2,1, 7,21, 0,21,20.00,30.00,SummerDesignDay
8,14.86165319297571
10,57788587.68217555
321,1116073.2494298539
2,1, 7,21, 0,21,30.00,40.00,SummerDesignDay
8,14.772906069764016
10,57461892.333115939
321,1116073.2494298539
2,1, 7,21, 0,21,40.00,50.00,SummerDesignDay
8,14.68386265003742
10,57185303.4281
321,1116073.2494298539
2,1, 7,21, 0,21,50.00,60.00,SummerDesignDay
8,14.594527715010113
10,56921959.543804239
321,1116073.2494298539
2,1, 7,21, 0,21, 0.00,60.00,SummerDesignDay
555,23.88865997288728
595,23.888650338514329
635,29.358154706683604
675,23.88918289500776
715,23.889003979468414
2,1, 7,21, 0,22, 0.00,10.00,SummerDesignDay
8,14.504905509541688
10,32304521.499224955
321,1116073.2494298539
2,1, 7,21, 0,22,10.00,20.00,SummerDesignDay
8,14.414976727101437
10,32304521.499224955
321,1116073.249429854
2,1, 7,21, 0,22,20.00,30.00,SummerDesignDay
8,14.324745320167273
10,32304521.499224955
321,1116073.2494298539
2,1, 7,21, 0,22,30.00,40.00,SummerDesignDay
8,14.234216253653046
10,32304521.499224955
321,1116073.2494298539
2,1, 7,21, 0,22,40.00,50.00,SummerDesignDay
8,14.143393776427315
10,32304521.499224955
321,1116073.2494298539
2,1, 7,21, 0,22,50.00,60.00,SummerDesignDay
8,14.052258104874559
10,32304521.499224955
321,1116073.2494298539
2,1, 7,21, 0,22, 0.00,60.00,SummerDesignDay
555,26.29785337519417
595,26.489615838723599
635,28.998836316448764
675,26.673548245767355
715,27.746761562290904
2,1, 7,21, 0,23, 0.00,10.00,SummerDesignDay
8,13.981159170719048
10,32304521.499224955
321,1116073.2494298539
2,1, 7,21, 0,23,10.00,20.00,SummerDesignDay
8,13.909886519525596
10,32830233.033839033
321,1116073.2494298539
2,1, 7,21, 0,23,20.00,30.00,SummerDesignDay
8,13.838418575776784
10,34089188.792618777
321,1116073.2494298539
2,1, 7,21, 0,23,30.00,40.00,SummerDesignDay
8,13.76676006502966
10,33690325.64536873
321,1116073.2494298539
2,1, 7,21, 0,23,40.00,50.00,SummerDesignDay
8,13.694926054299265
10,33991355.66125332
321,1116073.2494298539
2,1, 7,21, 0,23,50.00,60.00,SummerDesignDay
8,13.622890642324084
10,33968664.5771578
321,1116073.2494298539
2,1, 7,21, 0,23, 0.00,60.00,SummerDesignDay
555,28.15562358452455
595,28.82234593789866
635,29.0421367824121
675,28.61979542232487
715,29.632066330231365
2,1, 7,21, 0,24, 0.00,10.00,SummerDesignDay
8,13.550678061747112
10,33976707.242122258
321,1116073.2494298539
2,1, 7,21, 0,24,10.00,20.00,SummerDesignDay
8,13.478266313167316
10,32304521.499224955
321,1116073.2494298539
2,1, 7,21, 0,24,20.00,30.00,SummerDesignDay
8,13.40566913286146
10,34102352.89274013
321,1116073.2494298539
2,1, 7,21, 0,24,30.00,40.00,SummerDesignDay
8,13.332874210920233
10,33819161.906022917
321,1116073.2494298539
2,1, 7,21, 0,24,40.00,50.00,SummerDesignDay
8,13.259883052559263
10,34057596.7160745
321,1116073.2494298539
2,1, 7,21, 0,24,50.00,60.00,SummerDesignDay
8,13.186710984899572
10,34028617.30279586
321,1116073.2494298539
2,1, 7,21, 0,24, 0.00,60.00,SummerDesignDay
555,28.689177660999616
595,29.436120454891979
635,29.17881384899204
675,29.117060955488254
715,29.52431868777916
3,1, 7,21, 0,SummerDesignDay
556,53.338836699832658,40.917311376622347,22,40,76.3037817255552, 7,20
596,52.09029378091694,38.59282797738396,22,40,78.72189217484105, 7,10
636,35.577080184817329,15.421720730116565,15,10,69.1552404754738, 8,60
676,48.41643536513387,35.92313499564253,22,40,74.82239191761117, 7,10
716,43.11560714283262,32.92278647903042,22,40,56.03698040408519, 8, 7
4,1, 7
7,27.744625000000004,20.000000000000005,21, 5,60,36.7,21,14,60
1,BOISE AIR TERMINAL  UO ANN HTG 99.6% CONDNS DB,  43.62,-116.21,  -7.00, 701.00
2,1,12,21, 0, 1, 0.00,10.00,WinterDesignDay
8,-16.3
10,3712728.198675767
321,11491785.855791772
2,1,12,21, 0, 1,10.00,20.00,WinterDesignDay
8,-16.3
10,5815223.954062463
321,20538394.476604023
2,1,12,21, 0, 1,20.00,30.00,WinterDesignDay
8,-16.3
10,5087573.530531634
321,20034889.422163186
2,1,12,21, 0, 1,30.00,40.00,WinterDesignDay
8,-16.3
10,5524163.784650131
321,20025063.045309217
2,1,12,21, 0, 1,40.00,50.00,WinterDesignDay
8,-16.3
10,5524163.784650131
321,19709068.719431878
2,1,12,21, 0, 1,50.00,60.00,WinterDesignDay
8,-16.3
10,5524163.784650131
321,19782937.0159611
2,1,12,21, 0, 1, 0.00,60.00,WinterDesignDay
555,15.501892985848214
595,16.26104884259254
635,16.537947748930738
675,15.467063410417767
715,15.468169255234605
2,1,12,21, 0, 2, 0.00,10.00,WinterDesignDay
8,-16.3
10,2415445.5388246637
321,1116073.2494298539
2,1,12,21, 0, 2,10.00,20.00,WinterDesignDay
8,-16.3
10,4875040.314191075
321,23755422.603993298
2,1,12,21, 0, 2,20.00,30.00,WinterDesignDay
8,-16.3
10,5524163.784650131
321,21115165.574064349
2,1,12,21, 0, 2,30.00,40.00,WinterDesignDay
8,-16.3
10,5524163.784650131
321,20948538.96213258
2,1,12,21, 0, 2,40.00,50.00,WinterDesignDay
8,-16.3
10,5524163.784650131
321,20442418.488052168
2,1,12,21, 0, 2,50.00,60.00,WinterDesignDay
8,-16.3
10,5524163.784650131
321,20500499.835507465
2,1,12,21, 0, 2, 0.00,60.00,WinterDesignDay
555,15.451095025978601
595,16.060660416839629
635,16.717272491633329
675,15.448605659287353
715,15.447706140156234
2,1,12,21, 0, 3, 0.00,10.00,WinterDesignDay
8,-16.3
10,5524163.784650131
321,20570780.168583409
2,1,12,21, 0, 3,10.00,20.00,WinterDesignDay
8,-16.3
10,2415445.5388246637
321,1116073.2494298539
2,1,12,21, 0, 3,20.00,30.00,WinterDesignDay
8,-16.3
10,5524163.784650131
321,23638947.436194738
2,1,12,21, 0, 3,30.00,40.00,WinterDesignDay
8,-16.3
10,5524163.784650131
321,21835839.89596646
2,1,12,21, 0, 3,40.00,50.00,WinterDesignDay
8,-16.3
10,5087573.530531634
321,21136207.699816925
2,1,12,21, 0, 3,50.00,60.00,WinterDesignDay
8,-16.3
10,6397344.292887127
321,21201095.082844974
2,1,12,21, 0, 3, 0.00,60.00,WinterDesignDay
555,15.504567214943762
595,15.881476051500857
635,16.40095468060441
675,15.435777425174124
715,15.434001670540772
2,1,12,21, 0, 4, 0.00,10.00,WinterDesignDay
8,-16.3
10,5233103.6152377999
321,21174826.838910618
2,1,12,21, 0, 4,10.00,20.00,WinterDesignDay
8,-16.3
10,5815223.954062463
321,21226596.020299205
2,1,12,21, 0, 4,20.00,30.00,WinterDesignDay
8,-16.3
10,2706505.708236995
321,1116073.2494298539
2,1,12,21, 0, 4,30.00,40.00,WinterDesignDay
8,-16.3
10,5087573.530531634
321,27320706.995883287
2,1,12,21, 0, 4,40.00,50.00,WinterDesignDay
8,-16.3
10,6397344.292887127
321,17237771.31916603
2,1,12,21, 0, 4,50.00,60.00,WinterDesignDay
8,-16.3
10,5233103.6152377999
321,21751597.646604897
2,1,12,21, 0, 4, 0.00,60.00,WinterDesignDay
555,15.500994575587982
595,15.711251072108342
635,16.24137215152732
675,15.436385564725845
715,15.43595926667281
2,1,12,21, 0, 5, 0.00,10.00,WinterDesignDay
8,-16.3
10,5815223.954062463
321,21738094.142067426
2,1,12,21, 0, 5,10.00,20.00,WinterDesignDay
8,-16.3
10,5233103.6152377999
321,21756831.341738985
2,1,12,21, 0, 5,20.00,30.00,WinterDesignDay
8,-16.3
10,5524163.784650131
321,21794403.058290654
2,1,12,21, 0, 5,30.00,40.00,WinterDesignDay
8,-16.3
10,2415445.5388246637
321,1116073.2494298539
2,1,12,21, 0, 5,40.00,50.00,WinterDesignDay
8,-16.3
10,5815223.954062463
321,27987063.921179076
2,1,12,21, 0, 5,50.00,60.00,WinterDesignDay
8,-16.3
10,5233103.6152377999
321,22611268.605642715
2,1,12,21, 0, 5, 0.00,60.00,WinterDesignDay
555,15.494188397565253
595,15.555604500604823
635,16.36534026530825
675,15.426808258950532
715,15.425764255754843
2,1,12,21, 0, 6, 0.00,10.00,WinterDesignDay
8,-16.3
10,5524163.784650131
321,22825137.08709213
2,1,12,21, 0, 6,10.00,20.00,WinterDesignDay
8,-16.3
10,6397344.292887127
321,22308595.2239094
2,1,12,21, 0, 6,20.00,30.00,WinterDesignDay
8,-16.3
10,5233103.6152377999
321,22284270.09435391
2,1,12,21, 0, 6,30.00,40.00,WinterDesignDay
8,-16.3
10,5524163.784650131
321,22311715.25286207
2,1,12,21, 0, 6,40.00,50.00,WinterDesignDay
8,-16.3
10,2415445.5388246637
321,1116073.2494298539
2,1,12,21, 0, 6,50.00,60.00,WinterDesignDay
8,-16.3
10,5815223.954062463
321,28615216.607269676
2,1,12,21, 0, 6, 0.00,60.00,WinterDesignDay
555,15.489880690150877
595,15.427987722677266
635,16.333538475650017
675,15.42141083341447
715,15.420386880114047
2,1,12,21, 0, 7, 0.00,10.00,WinterDesignDay
8,-16.3
10,11780762.869713774
321,159227950.9933126
2,1,12,21, 0, 7,10.00,20.00,WinterDesignDay
8,-16.3
10,11732252.841478385
321,129597724.96647454
2,1,12,21, 0, 7,20.00,30.00,WinterDesignDay
8,-16.3
10,12168843.095596882
321,111182485.22798887
2,1,12,21, 0, 7,30.00,40.00,WinterDesignDay
8,-16.3
10,12168843.095596882
321,104994223.42493724
2,1,12,21, 0, 7,40.00,50.00,WinterDesignDay
8,-16.3
10,11586722.756772219
321,101260322.71994984
2,1,12,21, 0, 7,50.00,60.00,WinterDesignDay
8,-16.3
10,11295662.587359889
321,99765852.83526683
2,1,12,21, 0, 7, 0.00,60.00,WinterDesignDay
555,18.218528702418948
595,18.238731552946275
635,18.97234470574521
675,18.271137583442923
715,18.280899402849319
2,1,12,21, 0, 8, 0.00,10.00,WinterDesignDay
8,-16.3
10,11950547.968586166
321,189900614.53077594
2,1,12,21, 0, 8,10.00,20.00,WinterDesignDay
8,-16.3
10,12168843.095645413
321,167989515.525624
2,1,12,21, 0, 8,20.00,30.00,WinterDesignDay
8,-16.3
10,12168843.095645413
321,141734795.6481344
2,1,12,21, 0, 8,30.00,40.00,WinterDesignDay
8,-16.3
10,11586722.75682075
321,136243754.68445788
2,1,12,21, 0, 8,40.00,50.00,WinterDesignDay
8,-16.3
10,12168843.095645413
321,133144299.55440283
2,1,12,21, 0, 8,50.00,60.00,WinterDesignDay
8,-16.3
10,12168843.095645413
321,130582531.85351771
2,1,12,21, 0, 8, 0.00,60.00,WinterDesignDay
555,20.938971601352106
595,21.007876206132559
635,22.22124050404094
675,21.041631728626233
715,21.054116588412005
2,1,12,21, 0, 9, 0.00,10.00,WinterDesignDay
8,-16.3
10,12168843.095645413
321,134009000.38462284
2,1,12,21, 0, 9,10.00,20.00,WinterDesignDay
8,-16.3
10,12168843.095645413
321,132734411.60669399
2,1,12,21, 0, 9,20.00,30.00,WinterDesignDay
8,-16.3
10,9322059.095645415
321,131726300.41226536
2,1,12,21, 0, 9,30.00,40.00,WinterDesignDay
8,-16.3
10,9322059.095645415
321,130731658.9449902
2,1,12,21, 0, 9,40.00,50.00,WinterDesignDay
8,-16.3
10,9322059.095645415
321,129857136.28833151
2,1,12,21, 0, 9,50.00,60.00,WinterDesignDay
8,-16.3
10,9322059.095645415
321,129108951.19853905
2,1,12,21, 0, 9, 0.00,60.00,WinterDesignDay
555,21.109999998869556
595,21.109999999770737
635,21.765988909856934
675,21.10999999836521
715,21.109999996212268
2,1,12,21, 0,10, 0.00,10.00,WinterDesignDay
8,-16.3
10,9322059.095645415
321,128445933.08036512
2,1,12,21, 0,10,10.00,20.00,WinterDesignDay
8,-16.3
10,9322059.095645415
321,127854204.07521244
2,1,12,21, 0,10,20.00,30.00,WinterDesignDay
8,-16.3
10,9322059.095645415
321,127319671.47207004
2,1,12,21, 0,10,30.00,40.00,WinterDesignDay
8,-16.3
10,9322059.095645415
321,126831472.05377546
2,1,12,21, 0,10,40.00,50.00,WinterDesignDay
8,-16.3
10,9322059.095645415
321,126381200.43849968
2,1,12,21, 0,10,50.00,60.00,WinterDesignDay
8,-16.3
10,9322059.095645415
321,125962323.95737832
2,1,12,21, 0,10, 0.00,60.00,WinterDesignDay
555,21.10999999999997
595,21.110000000000018
635,21.24053016755967
675,21.10999999999999
715,21.109999999999926
2,1,12,21, 0,11, 0.00,10.00,WinterDesignDay
8,-16.3
10,9322059.095645415
321,125569742.56065879
2,1,12,21, 0,11,10.00,20.00,WinterDesignDay
8,-16.3
10,9322059.095645415
321,125199456.40435255
2,1,12,21, 0,11,20.00,30.00,WinterDesignDay
8,-16.3
10,9322059.095645415
321,124848313.53139374
2,1,12,21, 0,11,30.00,40.00,WinterDesignDay
8,-16.3
10,9322059.095645415
321,124521320.43584627
2,1,12,21, 0,11,40.00,50.00,WinterDesignDay
8,-16.3
10,9322059.095645415
321,124206429.21979974
2,1,12,21, 0,11,50.00,60.00,WinterDesignDay
8,-16.3
10,9322059.095645415
321,123901855.02003923
2,1,12,21, 0,11, 0.00,60.00,WinterDesignDay
555,21.10999999999998
595,21.109999999999997
635,21.14076488429328
675,21.11000000000001
715,21.109999999999994
2,1,12,21, 0,12, 0.00,10.00,WinterDesignDay
8,-16.3
10,9322059.095645415
321,123608138.457263
2,1,12,21, 0,12,10.00,20.00,WinterDesignDay
8,-16.3
10,9322059.095645415