Program Version,EnergyPlus, Version 8.9.0-eba93e8e1b, YMD=2018.05.22 21:08
1,5,Environment Title[],Latitude[deg],Longitude[deg],Time Zone[],Elevation[m]
2,8,Day of Simulation[],Month[],Day of Month[],DST Indicator[1=yes 0=no],Hour[],StartMinute[],EndMinute[],DayType
3,5,Cumulative Day of Simulation[],Month[],Day of Month[],DST Indicator[1=yes 0=no],DayType  ! When Daily Report Variables Requested
4,2,Cumulative Days of Simulation[],Month[]  ! When Monthly Report Variables Requested
5,1,Cumulative Days of Simulation[] ! When Run Period Report Variables Requested
6,1,Calendar Year of Simulation[] ! When Annual Report Variables Requested
7,9,Environment,Site Outdoor Air Drybulb Temperature [C] !Monthly [Value,Min,Day,Hour,Minute,Max,Day,Hour,Minute]
8,1,Environment,Site Outdoor Air Drybulb Temperature [C] !TimeStep
9,1,Environment,Site Outdoor Air Relative Humidity [%] !TimeStep
10,1,Environment,Site Mains Water Temperature [C] !TimeStep
545,1,ATTIC ZN,Zone Air Temperature [C] !Hourly
546,1,ATTIC ZN,Zone Air Relative Humidity [%] !Hourly
547,7,ATTIC ZN,Zone Air Relative Humidity [%] !Daily [Value,Min,Hour,Minute,Max,Hour,Minute]
586,1,CORE_ZN ZN,Zone Air Temperature [C] !Hourly
587,1,CORE_ZN ZN,Zone Air Relative Humidity [%] !Hourly
588,7,CORE_ZN ZN,Zone Air Relative Humidity [%] !Daily [Value,Min,Hour,Minute,Max,Hour,Minute]
627,1,PERIMETER_ZN_1 ZN,Zone Air Temperature [C] !Hourly
628,1,PERIMETER_ZN_1 ZN,Zone Air Relative Humidity [%] !Hourly
629,7,PERIMETER_ZN_1 ZN,Zone Air Relative Humidity [%] !Daily [Value,Min,Hour,Minute,Max,Hour,Minute]
668,1,PERIMETER_ZN_2 ZN,Zone Air Temperature [C] !Hourly
669,1,PERIMETER_ZN_2 ZN,Zone Air Relative Humidity [%] !Hourly
670,7,PERIMETER_ZN_2 ZN,Zone Air Relative Humidity [%] !Daily [Value,Min,Hour,Minute,Max,Hour,Minute]
709,1,PERIMETER_ZN_3 ZN,Zone Air Temperature [C] !Hourly
710,1,PERIMETER_ZN_3 ZN,Zone Air Relative Humidity [%] !Hourly
711,7,PERIMETER_ZN_3 ZN,Zone Air Relative Humidity [%] !Daily [Value,Min,Hour,Minute,Max,Hour,Minute]
750,1,PERIMETER_ZN_4 ZN,Zone Air Temperature [C] !Hourly
751,1,PERIMETER_ZN_4 ZN,Zone Air Relative Humidity [%] !Hourly
752,7,PERIMETER_ZN_4 ZN,Zone Air Relative Humidity [%] !Daily [Value,Min,Hour,Minute,Max,Hour,Minute]
997,1,Cooling:Electricity [J] !TimeStep
1031,1,Heating:Electricity [J] !TimeStep
12,1,Electricity:Facility [J] !TimeStep
1063,1,Gas:Facility [J] !TimeStep
End of Data Dictionary
1,RUN PERIOD 1,  30.00, -95.37,  -6.00,  29.00
2,1, 1, 1, 0, 1, 0.00,60.00,Sunday
8,2.8
9,93.0
10,18.403696281600089
12,20490059.76020636
997,0.0
1031,900000.0
1063,0.0
2,1, 1, 1, 0, 1, 0.00,60.00,Sunday
545,18.030062982800428
546,33.60591739586474
586,21.555916815200356
587,27.002697869900627
627,20.87751782455252
628,27.603088701348729
668,19.87382689605789
669,29.353953053303625
709,19.427965495111768
710,30.20795967263556
750,19.764579677349134
751,29.549481335362139
2,1, 1, 1, 0, 2, 0.00,60.00,Sunday
8,2.8
9,93.0
10,18.403696281600089
12,20490059.76020636
997,0.0
1031,900000.0
1063,0.0
2,1, 1, 1, 0, 2, 0.00,60.00,Sunday
545,17.832385975974295
546,34.026684216798
586,21.518246109605245
587,27.065038613883958
627,20.73324075399756
628,27.847458439027109
668,19.782687525220699
669,29.51821604429018
709,19.369656754732504
710,30.315832150319605
750,19.679164069382965
751,29.70441322039128
2,1, 1, 1, 0, 3, 0.00,60.00,Sunday
8,2.2
9,96.0
10,18.403696281600089
12,20490059.76020636
997,0.0
1031,900000.0
1063,0.0
2,1, 1, 1, 0, 3, 0.00,60.00,Sunday
545,17.6615041145776
546,34.39518722932644
586,21.47551355192178
587,27.135951095704504
627,20.584968070630624
628,28.104802840576398
668,19.68571660252547
669,29.698341506356976
709,19.30344763004572
710,30.44284217740514
750,19.58720659459552
751,29.87649822397223
2,1, 1, 1, 0, 4, 0.00,60.00,Sunday
8,1.7
9,92.0
10,18.403696281600089
12,20490059.76020636
997,0.0
1031,900000.0
1063,0.0
2,1, 1, 1, 0, 4, 0.00,60.00,Sunday
545,17.502763204135893
546,34.7757250614415
586,21.42789274541503
587,27.242009040397293
627,20.432566358015799
628,28.399701806640409
668,19.58167309239831
669,29.921950427531454
709,19.229937775579868
710,30.614166087153817
750,19.48789734225508
751,30.0927298948519
2,1, 1, 1, 0, 5, 0.00,60.00,Sunday
8,1.7
9,96.0
10,18.403696281600089
12,20490059.76020636
997,0.0
1031,900000.0
1063,0.0
2,1, 1, 1, 0, 5, 0.00,60.00,Sunday
545,17.361492979500864
546,35.087554981975319
586,21.37705369160352
587,27.32700961064826
627,20.304753941857564
628,28.625409760838197
668,19.49673531805076
669,30.081047649943945
709,19.172464113056657
710,30.724658608037666
750,19.407156310800123
751,30.244948795776855
2,1, 1, 1, 0, 6, 0.00,60.00,Sunday
8,1.1
9,96.0
10,18.403696281600089
12,20490059.76020636
997,0.0
1031,900000.0
1063,0.0
2,1, 1, 1, 0, 6, 0.00,60.00,Sunday
545,17.227114542133113
546,35.38708872846554
586,21.324061310350076
587,27.41592842014301
627,20.155638178943076
628,28.890694847748244
668,19.389289961207749
669,30.282932719429295
709,19.09431185218059
710,30.874891696413326
750,19.30386194727672
751,30.440205654196779
2,1, 1, 1, 0, 7, 0.00,60.00,Sunday
8,1.7
9,92.0
10,18.403696281600089
12,21603759.360206363
997,0.0
1031,900000.0
1063,0.0
2,1, 1, 1, 0, 7, 0.00,60.00,Sunday
545,17.130762942601913
546,35.638635879558339
586,21.270051957661015
587,27.53393374467302
627,20.066940513252864
628,29.078259990559319
668,19.335064040748646
669,30.415169473255113
709,19.06318906710359
710,30.965283552526058
750,19.253336574837677
751,30.566150209936166
2,1, 1, 1, 0, 8, 0.00,60.00,Sunday
8,1.1
9,96.0
10,18.403696281600089
12,18231963.360206363
997,0.0
1031,900000.0
1063,0.0
2,1, 1, 1, 0, 8, 0.00,60.00,Sunday
545,17.104858791591409
546,35.73224150603548
586,21.230603375611
587,27.62777838774752
627,20.326721800776157
628,28.643075012731125
668,19.919808082143484
669,29.3601257118886
709,19.04420366477491
710,31.03243553504834
750,19.216905705653489
751,30.665709228916837
2,1, 1, 1, 0, 9, 0.00,60.00,Sunday
8,6.7
9,83.0
10,18.403696281600089
12,17331963.360206363
997,0.0
1031,0.0
1063,0.0
2,1, 1, 1, 0, 9, 0.00,60.00,Sunday
545,17.407667114340485
546,35.05459909897167
586,21.217058537240314
587,27.65073890117744
627,21.82818895787488
628,26.28299214235479
668,21.609583116798864
669,26.63754297686544
709,19.2204099121999
710,30.862942630093323
750,19.418047026373598
751,30.473061063166339
2,1, 1, 1, 0,10, 0.00,60.00,Sunday
8,10.6
9,72.0
10,18.403696281600089
12,17331963.360206363
997,0.0
1031,0.0
1063,0.0
2,1, 1, 1, 0,10, 0.00,60.00,Sunday
545,18.151251708598094
546,33.51844763372074
586,21.230790319644379
587,27.681673095944629
627,22.839555968424734
628,24.73964922492284
668,22.186097541056279
669,25.736043185047074
709,19.60055202734477
710,30.18170111761124
750,19.83123592035141
751,29.73814642980198
2,1, 1, 1, 0,11, 0.00,60.00,Sunday
8,12.8
9,51.0
10,18.403696281600089
12,17331963.360206363
997,0.0
1031,0.0
1063,0.0
2,1, 1, 1, 0,11, 0.00,60.00,Sunday
545,18.911034828948929
546,31.931237315115877
586,21.265007291297065
587,27.596575233150696
627,23.44774872384077
628,23.921775480630055
668,21.95198121127387
669,26.197966966856464
709,19.640054965478428
710,30.198721015272754
750,19.87679801055078
751,29.758834797254914
2,1, 1, 1, 0,12, 0.00,60.00,Sunday
8,14.4
9,44.0
10,18.403696281600089
12,17331963.360206363
997,0.0
1031,0.0
1063,0.0
2,1, 1, 1, 0,12, 0.00,60.00,Sunday
545,19.803217006298355
546,30.20314024197478
586,21.327076423011346
587,27.49173101024636
627,23.925353387186953
628,23.394619275124936
668,21.167781940410138
669,27.67882613896189
709,19.805640737335396
710,30.07489880959878
750,20.078462976270197
751,29.592526990854489
2,1, 1, 1, 0,13, 0.00,60.00,Sunday
8,16.7
9,40.0
10,18.403696281600089
12,17331963.360206363
997,0.0
1031,0.0
1063,0.0
2,1, 1, 1, 0,13, 0.00,60.00,Sunday
545,20.443145634584626
546,29.001028143363265
586,21.399110491005034
587,27.343779628023407
627,24.52821809472146
628,22.74111910433912
668,20.982386922894319
669,28.22520405079402
709,19.95245782835356
710,30.023178951075477
750,20.247541320451896
751,29.527167105309695
2,1, 1, 1, 0,14, 0.00,60.00,Sunday
8,17.2
9,33.0
10,18.403696281600089
12,17331963.360206363
997,0.0
1031,0.0
1063,0.0
2,1, 1, 1, 0,14, 0.00,60.00,Sunday
545,20.750297893513847
546,28.429382518133495
586,21.47105170875292
587,27.19683510271755
627,24.65466722334542
628,22.41316164642578
668,21.070317084781445
669,27.867210843136609
709,20.05216363072143
710,29.642107910137179
750,20.597012877416696
751,28.68660040106766
2,1, 1, 1, 0,15, 0.00,60.00,Sunday
8,16.7
9,31.0
10,18.403696281600089
12,17331963.360206363
997,0.0
1031,0.0
1063,0.0
2,1, 1, 1, 0,15, 0.00,60.00,Sunday
545,21.001839416732709
546,27.991864243910908
586,21.559692904097426
587,27.049654392159249
627,24.59417652506357
628,22.291832294010768
668,21.106200596521114
669,27.540467590528743
709,20.12778754223036
710,29.25408581214493
750,21.737413553994658
751,26.49923530333391
2,1, 1, 1, 0,16, 0.00,60.00,Sunday
8,16.7
9,31.0
10,18.403696281600089
12,17331963.360206363
997,0.0
1031,0.0
1063,0.0
2,1, 1, 1, 0,16, 0.00,60.00,Sunday
545,20.971406414258707
546,28.043585069571873
586,21.631192947589115
587,26.93155742673277
627,24.110712324659248
628,22.799588084828323
668,21.139543268441846
669,27.296949904099365
709,20.204992355562977
710,28.937700870798574
750,21.96320217564934
751,25.950868079551137
2,1, 1, 1, 0,17, 0.00,60.00,Sunday
8,15.0
9,38.0
10,18.403696281600089
12,17331963.360206363
997,0.0
1031,0.0
1063,0.0
2,1, 1, 1, 0,17, 0.00,60.00,Sunday
545,20.76889155268147
546,28.395568460731629
586,21.69063433252578
587,26.833823385999695
627,23.3669510327437
628,23.804381561827193
668,21.017084167110327
669,27.45314544015194
709,20.155335458351574
710,28.978826973904839
750,21.818954519630329
751,26.13170891028089
2,1, 1, 1, 0,18, 0.00,60.00,Sunday
8,11.7
9,49.0
10,18.403696281600089
12,20703759.360206363
997,0.0
1031,0.0
1063,0.0
2,1, 1, 1, 0,18, 0.00,60.00,Sunday
545,20.315850689067028
546,29.20187305699355
586,21.71006734818622
587,26.801938327365094
627,22.34609658898901
628,25.321765474750515
668,20.686754476970067
669,28.010751559373007
709,19.92690584392109
710,29.384848203268203
750,20.78716796682766
751,27.836426855253636
2,1, 1, 1, 0,19, 0.00,60.00,Sunday
8,7.2
9,71.0
10,18.403696281600089
12,20703759.360206363
997,0.0
1031,0.0
1063,0.0
2,1, 1, 1, 0,19, 0.00,60.00,Sunday
545,19.77186166579944
546,30.232455337854327
586,21.705696849938833
587,26.835431199426666
627,21.84281207028571
628,26.175534529390857
668,20.37103171360674
669,28.640761507775666
709,19.69044707767832
710,29.895094342075028
750,20.328462282147627
751,28.712173636796626
2,1, 1, 1, 0,20, 0.00,60.00,Sunday
8,6.1
9,76.0
10,18.403696281600089
12,20703759.360206363
997,0.0
1031,0.0
1063,0.0
2,1, 1, 1, 0,20, 0.00,60.00,Sunday
545,19.31285974280699
546,31.13709711523027
586,21.68922159013935
587,26.888838106892157
627,21.59094586605388
628,26.63599357637898
668,20.228779945938777
669,28.95644033321404
709,19.60052511535642
710,30.123638875759349
750,20.12681749720224
751,29.13463631867005
2,1, 1, 1, 0,21, 0.00,60.00,Sunday
8,6.7
9,68.0
10,18.403696281600089
12,20703759.360206363
997,0.0
1031,0.0
1063,0.0
2,1, 1, 1, 0,21, 0.00,60.00,Sunday
545,18.895796458912576
546,31.95618431464481
586,21.668004323456704
587,26.923746845263567
627,21.369578381113898
628,27.01192789714959
668,20.13073605325782
669,29.147910665010355
709,19.550713599155054
710,30.230351756520418
750,19.98372866361725
751,29.409374007016337
2,1, 1, 1, 0,22, 0.00,60.00,Sunday
8,4.4
9,82.0
10,18.403696281600089
12,20703759.360206363
997,0.0
1031,0.0
1063,0.0
2,1, 1, 1, 0,22, 0.00,60.00,Sunday
545,18.62232756559319
546,32.50732220873796
586,21.644658075993588
587,26.962216164003327
627,21.082659988220639
628,27.49232284187153
668,19.91247038703497
669,29.545769020967545
709,19.385615132875466
710,30.542379995245818
750,19.769504418251296
751,29.80419833609311
2,1, 1, 1, 0,23, 0.00,60.00,Sunday
8,5.0
9,73.0
10,18.403696281600089
12,20703759.360206363
997,0.0
1031,0.0
1063,0.0
2,1, 1, 1, 0,23, 0.00,60.00,Sunday
545,18.43149820058992
546,32.93057771991325
586,21.614877317543873
587,27.037859720741936
627,20.997063725959504
628,27.594294343038546
668,19.87666511626274
669,29.560639108764059
709,19.374883230715825
710,30.51838462378031
750,19.745137344049995
751,29.798490209035334
2,1, 1, 1, 0,24, 0.00,60.00,Sunday
8,3.3
9,86.0
10,18.403696281600089
12,21603759.360206363
997,0.0
1031,900000.0
1063,0.0
2,1, 1, 1, 0,24, 0.00,60.00,Sunday
545,18.236471507350037
546,33.336046462750427
586,21.580428616630156
587,27.094909702418307
627,21.001343198957163
628,27.542318634830786
668,19.941405112898005
669,29.39144786708357
709,19.458563954528175
710,30.312809959861114
750,19.823235124115994
751,29.603443451280428
3,1, 1, 1, 0,Sunday
547,32.18831016421184,27.79450043993673,15,60,35.76120428326937, 8,60
588,27.19465229272338,26.789978749284019,18,60,27.69216896214119,10,15
629,26.139823646306004,22.14070330033386,15,60,29.078259990559319, 7,60
670,28.60495057269287,25.515198251831955,10,45,30.415169473255113, 7,60
711,30.18082255527861,28.780533274626309,16,60,31.047185232697307, 8,60
752,29.241542852423778,25.66902157358785,16,60,30.690757054068059, 8,60
2,2, 1, 2, 0, 1, 0.00,60.00,Monday
8,5.0
9,76.0
10,18.364112125152518
12,28137605.432008156
997,0.0
1031,0.0
1063,0.0
2,2, 1, 2, 0, 1, 0.00,60.00,Monday
545,18.165780549841299
546,33.45166893167796
586,21.982605823667894
587,26.411948738064717
627,21.129486552787165
628,27.274997871713798
668,20.079636677468494
669,29.084865289483767
709,19.65841086957912
710,29.8833524036202
750,19.968828566477869
751,29.281216943071557
2,2, 1, 2, 0, 2, 0.00,60.00,Monday
8,2.2
9,89.0
10,18.364112125152518
12,29037605.432008156
997,0.0
1031,900000.0
1063,0.0
2,2, 1, 2, 0, 2, 0.00,60.00,Monday
545,18.02371099266513
546,33.78479714366475
586,22.04551818161309
587,26.33597374334462
627,21.244241011983794
628,27.102428929047364
668,20.242787532985984
669,28.812522530623153
709,19.84382229603702
710,29.56202702176036
750,20.135610826365537
751,29.00031173262193
2,2, 1, 2, 0, 3, 0.00,60.00,Monday
8,3.3
9,79.0
10,18.364112125152518
12,29037605.432008156
997,0.0
1031,900000.0
1063,0.0
2,2, 1, 2, 0, 3, 0.00,60.00,Monday
545,17.904969531882533
546,34.004853682820968
586,22.019382827661127
587,26.35214593464179
627,21.04815058640569
628,27.307278347004855
668,20.08388407357701
669,28.95980666830505
709,19.728987332497359
710,29.64387838275885
750,20.00930974206835
751,29.090144622761227
2,2, 1, 2, 0, 4, 0.00,60.00,Monday
8,2.8
9,82.0
10,18.364112125152518
12,29037605.432008156
997,0.0
1031,900000.0
1063,0.0
2,2, 1, 2, 0, 4, 0.00,60.00,Monday
545,17.845183567727923
546,34.133157563488698
586,22.021028662743669
587,26.3495013848107
627,20.769269945836883
628,27.667822021849504
668,19.87525163352853
669,29.21086817833188
709,19.57466831404971
710,29.813582391379819
750,19.82020734909431
751,29.30716196092054
2,2, 1, 2, 0, 5, 0.00,60.00,Monday
8,2.2
9,82.0
10,18.364112125152518
12,29037605.432008156
997,0.0
1031,900000.0
1063,0.0
2,2, 1, 2, 0, 5, 0.00,60.00,Monday
545,17.759612325200295
546,34.31765217058654
586,22.009861542356359
587,26.36745360002255
627,20.66213911022103
628,27.67358821942138
668,19.84145392248529
669,29.0744434173404
709,19.566953151846957
710,29.645812218681166
750,19.78647600967573
751,29.170426146022068
2,2, 1, 2, 0, 6, 0.00,60.00,Monday
8,1.1
9,85.0
10,18.364112125152518
12,31698161.71247206
997,0.0
1031,900000.0
1063,0.0
2,2, 1, 2, 0, 6, 0.00,60.00,Monday
545,17.64975294484959
546,34.52232865625416
586,22.035195822167098
587,26.30093518583394
627,20.503170310094008
628,27.64001733485875
668,19.73048888815319
669,28.937033094216788
709,19.494796297920524
710,29.464721085524098
750,19.68392858185256
751,29.017728044444003
2,2, 1, 2, 0, 7, 0.00,60.00,Monday
8,1.7
9,82.0
10,18.364112125152518
12,45465392.89019555
997,0.0
1031,2728446.331974608
1063,0.0
2,2, 1, 2, 0, 7, 0.00,60.00,Monday
545,17.558778815987837
546,34.72115199602439
586,22.604817826057237
587,25.570162802108486
627,21.181188535337247
628,26.573624025516798
668,20.91010891900345
669,26.94435460234432
709,20.93447027156891
710,27.007481502699194
750,20.88662885073046
751,26.97840708003004
2,2, 1, 2, 0, 8, 0.00,60.00,Monday
8,2.2
9,85.0
10,18.364112125152518
12,53584269.44853001
997,0.0
1031,4109005.024527619
1063,0.0
2,2, 1, 2, 0, 8, 0.00,60.00,Monday
545,17.534806542880948
546,34.80781562796183
586,21.93301628319449
587,26.568253887965058
627,21.12893420207888
628,26.687388698454624
668,21.05138533041001
669,26.740137427004798
709,21.070833477930785
710,26.802327429744645
750,21.041437532835745
751,26.7513592388253
2,2, 1, 2, 0, 9, 0.00,60.00,Monday
8,5.6
9,73.0
10,18.364112125152518
12,89262514.16945884
997,0.0
1031,0.0
1063,0.0
2,2, 1, 2, 0, 9, 0.00,60.00,Monday
545,17.793343622291265
546,34.24513043350839
586,23.226153496977095
587,25.7406083205309
627,22.769272458254397
628,25.27152629881335
668,22.327192758408687
669,25.71224408295922
709,21.579602539543538
710,27.18543761611435
750,21.87231766347034
751,26.382727336199005
2,2, 1, 2, 0,10, 0.00,60.00,Monday
8,8.3
9,58.0
10,18.364112125152518
12,89262514.16945884
997,0.0
1031,0.0
1063,0.0
2,2, 1, 2, 0,10, 0.00,60.00,Monday
545,18.303053272321834
546,33.166077074931198
586,23.637469018083566
587,26.080340359795107
627,23.37127509504144
628,25.302609503199933
668,22.891641569965605
669,25.612016143153079
709,22.121178884635215
710,27.107182201932248
750,22.469111945879054
751,26.136756980312194
2,2, 1, 2, 0,11, 0.00,60.00,Monday
8,10.0
9,54.0
10,18.364112125152518
12,90311342.29267878
997,1048828.1232199446
1031,0.0
1063,0.0
2,2, 1, 2, 0,11, 0.00,60.00,Monday
545,18.998677869943628
546,31.753066791184389
586,23.857291108223934
587,27.12165006547625
627,23.812468129500699
628,25.915601418861117
668,23.494572273970733
669,25.709914645723904
709,22.668739123540008
710,27.400584584517497
750,23.04170118153112
751,26.187418561857205
2,2, 1, 2, 0,12, 0.00,60.00,Monday
8,12.2
9,53.0
10,18.364112125152518
12,91315138.2005657
997,2052624.0311068553
1031,0.0
1063,0.0
2,2, 1, 2, 0,12, 0.00,60.00,Monday
545,19.70673299773954
546,30.324318965674089
586,23.88543048956361
587,28.581994928231518
627,23.877898271417338
628,27.253166845805013
668,23.816903467265193
669,26.41145671670488
709,23.185829635867689
710,27.940894439424114
750,23.577736044253429
751,26.46595663249148
2,2, 1, 2, 0,13, 0.00,60.00,Monday
8,13.9
9,53.0
10,18.364112125152518
12,84583818.0156584
997,2351925.54148772
1031,0.0
1063,0.0
2,2, 1, 2, 0,13, 0.00,60.00,Monday
545,20.3703313433927
546,29.074722380140618
586,23.889276632809709
587,29.67404505387787
627,23.887973805880664
628,28.34032743550509
668,23.87630348513018
669,27.277613713314915
709,23.37795469969775
710,28.756654351130469
750,23.81747319163375
751,27.006109517488868
2,2, 1, 2, 0,14, 0.00,60.00,Monday
8,13.3
9,57.0
10,18.364112125152518
12,92657955.79880084
997,3395441.629342017
1031,0.0
1063,0.0
2,2, 1, 2, 0,14, 0.00,60.00,Monday
545,20.647807862624228
546,28.553003990869934
586,23.889813940485376
587,30.734639990205176
627,23.889480528024419
628,29.38352308797085
668,23.88598060222508
669,28.203671144478098
709,23.707187497832469
710,29.252543193776487
750,23.867992148780958
751,27.84385112644275
2,2, 1, 2, 0,15, 0.00,60.00,Monday
8,13.9
9,58.0
10,18.364112125152518
12,95801219.4246782
997,6538705.255219372
1031,0.0
1063,0.0
2,2, 1, 2, 0,15, 0.00,60.00,Monday
545,21.198686765469149
546,27.546594048695505
586,23.889658536756217
587,32.27687271873505
627,23.889443925190766
628,30.82519500091427
668,23.888743090676948
669,29.418181249801699
709,23.84760057652572
710,30.496138171270674
750,23.88300426018909
751,28.989354623768848
2,2, 1, 2, 0,16, 0.00,60.00,Monday
8,13.3
9,62.0
10,18.364112125152518
12,95329332.37553539
997,6066818.206076541
1031,0.0
1063,0.0
2,2, 1, 2, 0,16, 0.00,60.00,Monday
545,21.45097785468507
546,27.12332781706104
586,23.889575473944175
587,33.77638122667342
627,23.88957764196867
628,32.24970226084157
668,23.8895470205022
669,30.660030276224725
709,23.879822018383977
710,31.915835638632914
750,23.887559610934124
751,30.183281587537196
2,2, 1, 2, 0,17, 0.00,60.00,Monday
8,12.2
9,69.0
10,18.364112125152518
12,94165448.57170579
997,4902934.402246963
1031,0.0
1063,0.0
2,2, 1, 2, 0,17, 0.00,60.00,Monday
545,21.401234952412396
546,27.206051323493737
586,23.88984847894002
587,35.13792830973276
627,23.889913607482208
628,33.55311098410626
668,23.88989306711364
669,31.81961165060459
709,23.887887312487629
710,33.252026341145818
750,23.88924892659087
751,31.30697369968561
2,2, 1, 2, 0,18, 0.00,60.00,Monday
8,11.1
9,80.0
10,18.364112125152518
12,63530166.05981568
997,572991.7700504724
1031,0.0
1063,0.0
2,2, 1, 2, 0,18, 0.00,60.00,Monday
545,21.188605730264059
546,27.53614942845617
586,23.889973800088375
587,35.431669210115888
627,23.863064811132529
628,34.01953954467412
668,23.721884375233438
669,32.62308931650962
709,23.409327910563037
710,34.67874642043364
750,23.77668096747521
751,32.0105115137077
2,2, 1, 2, 0,19, 0.00,60.00,Monday
8,10.6
9,83.0
10,18.364112125152518
12,44299514.752200599
997,0.0
1031,0.0
1063,0.0
2,2, 1, 2, 0,19, 0.00,60.00,Monday
545,20.979445389622563
546,27.864804979898776
586,23.697132209047138
587,35.99177047165438
627,23.266096276439208
628,35.565025746449098
668,23.167924512393414
669,34.13493233478705
709,22.71670070812022
710,36.49533111712846
750,23.258524073748928
751,33.452438684958448
2,2, 1, 2, 0,20, 0.00,60.00,Monday
8,10.6
9,86.0
10,18.364112125152518
12,33474429.506451716
997,0.0
1031,0.0
1063,0.0
2,2, 1, 2, 0,20, 0.00,60.00,Monday
545,20.811040596669796
546,28.154867479943115
586,23.96017855804362
587,35.742031254483439
627,22.77858260452486
628,37.17180269651346
668,22.308056392153767
669,36.68696638696568
709,22.162327660120483
710,38.29830663020299
750,22.345218998547794
751,36.12964080294674
2,2, 1, 2, 0,21, 0.00,60.00,Monday
8,11.7
9,83.0
10,18.364112125152518
12,28153316.945523919
997,0.0
1031,0.0
1063,0.0
2,2, 1, 2, 0,21, 0.00,60.00,Monday
545,20.749877306703718
546,28.26091265781045
586,23.872047627443114
587,36.490781009089399
627,22.566582153709356
628,38.60712963543141
668,22.05659338379523
669,38.46033955565063
709,21.93531490529021
710,39.80320713600315
750,22.08571863869903
751,37.9800819457118
2,2, 1, 2, 0,22, 0.00,60.00,Monday
8,11.7
9,90.0
10,18.364112125152518
12,28153316.945523919
997,0.0
1031,0.0
1063,0.0
2,2, 1, 2, 0,22, 0.00,60.00,Monday
545,20.77576165022809
546,28.21590084548802
586,23.7388160079052
587,37.47001456981566
627,22.508660179669353
628,40.062036597795458
668,22.020932651088058
669,40.134658656981908
709,21.866687148496355
710,41.31316422195755
750,22.061622814279028
751,39.69097123695836
2,2, 1, 2, 0,23, 0.00,60.00,Monday
8,12.2
9,86.0
10,18.364112125152518
12,23364315.640670264
997,0.0
1031,0.0
1063,0.0
2,2, 1, 2, 0,23, 0.00,60.00,Monday
545,20.812799907156188
546,28.151634472836457
586,23.574499269809935
587,38.35458100222595
627,22.43492458704548
628,41.31615928852401
668,21.925143400523635
669,41.66110067236765
709,21.77347915644963
710,42.65258929134022
750,21.96990307491138
751,41.25341760622914
2,2, 1, 2, 0,24, 0.00,60.00,Monday
8,11.7
9,90.0
10,18.364112125152518
12,20703759.360206363
997,0.0
1031,0.0
1063,0.0
2,2, 1, 2, 0,24, 0.00,60.00,Monday
545,20.816299580184336
546,28.145569982506748
586,23.40682211894764
587,38.946282214654889
627,22.1900734877007
628,42.62371127114521
668,21.7031037882316
669,43.08864528008847
709,21.571258605469123
710,43.903997262614279
750,21.748982958368044
751,42.70911579593139
3,2, 1, 2, 0,Monday
547,30.794398268540748,27.068211795876726,16,60,34.83399814379823, 8,60
588,30.74199858258706,25.366545377884159, 7,60,38.946282214654889,24,60
629,31.057804711017384,24.970315628627966, 9,60,42.62371127114521,24,60
670,31.05743762641526,25.515262747198297, 9,45,43.08864528008847,24,60
711,32.17815921057471,26.76240118296638, 7,60,43.903997262614279,24,60
752,30.930223475871814,26.064748992785277,10,40,42.70911579593139,24,60
2,3, 1, 3, 0, 1, 0.00,60.00,Tuesday
8,11.7
9,93.0
10,18.32609333433374
12,28137605.432008156
997,0.0
1031,0.0
1063,0.0
2,3, 1, 3, 0, 1, 0.00,60.00,Tuesday
545,20.794670916504694
546,28.15522260907516
586,23.776622322183458
587,37.9655954186691
627,22.486989029789596
628,41.909908966109579
668,21.98733655783183
669,42.431286675564539
709,21.88198319005977
710,43.135642694956299
750,22.038469893416399
751,42.05022524656782
2,3, 1, 3, 0, 2, 0.00,60.00,Tuesday
8,11.7
9,96.0
10,18.32609333433374
12,28137605.432008156
997,0.0
1031,0.0
1063,0.0
2,3, 1, 3, 0, 2, 0.00,60.00,Tuesday
545,20.718289659126304
546,28.287970899178619
586,23.7983217090828
587,37.825374796353518
627,22.57831690934801
628,41.92465434603271
668,22.07399124229618
669,42.51725352412387
709,21.99411810759845
710,43.10103910177068
750,22.131505910501916
751,42.13006484821534
2,3, 1, 3, 0, 3, 0.00,60.00,Tuesday
8,12.8
9,93.0
10,18.32609333433374
12,28137605.432008156
997,0.0
1031,0.0
1063,0.0
2,3, 1, 3, 0, 3, 0.00,60.00,Tuesday
545,20.691957857300538
546,28.305872903156144
586,23.74015215245692
587,37.8785366339198
627,22.598404298286068
628,42.414917817691257
668,22.107960390735319
669,43.08755890355182
709,22.03326973777881
710,43.55791046989108
750,22.164140869718286
751,42.72104841020837
2,3, 1, 3, 0, 4, 0.00,60.00,Tuesday
8,13.3
9,93.0
10,18.32609333433374
12,28137605.432008156
997,0.0
1031,0.0
1063,0.0
2,3, 1, 3, 0, 4, 0.00,60.00,Tuesday
545,20.704745497829764
546,28.283580225334533
586,23.72328460102586
587,37.906743337699229
627,22.81080579453097
628,42.193776240337367
668,22.33924359156405
669,42.86898092235477
709,22.248083307550883
710,43.32327383668347
750,22.375673993470647
751,42.567581643912159
2,3, 1, 3, 0, 5, 0.00,60.00,Tuesday
8,13.9
9,97.0
10,18.32609333433374
12,28137605.432008156
997,0.0
1031,0.0
1063,0.0
2,3, 1, 3, 0, 5, 0.00,60.00,Tuesday
545,20.745571630987098
546,28.184608460038864
586,23.716934659420905
587,37.884783915572047
627,22.661741307131753
628,43.45072750560247
668,22.22075769345785
669,44.1849654418749
709,22.136805784071617
710,44.50321796128779
750,22.237864267631595
751,43.94741793005992
2,3, 1, 3, 0, 6, 0.00,60.00,Tuesday
8,14.4
9,97.0
10,18.32609333433374
12,30798161.71247206
997,0.0
1031,0.0
1063,0.0
2,3, 1, 3, 0, 6, 0.00,60.00,Tuesday
545,20.79942797928287
546,28.09129647664107
586,23.748478542191909
587,37.81547751603279
627,22.622929141593465
628,44.92422647592887
668,22.198945111995607
669,45.79365433563669
709,22.137723926419679
710,45.88610309777064
750,22.212292737199076
751,45.58525586282015
2,3, 1, 3, 0, 7, 0.00,60.00,Tuesday
8,15.0
9,90.0
10,18.32609333433374
12,43394296.794124748
997,657350.2359037994
1031,0.0
1063,0.0
2,3, 1, 3, 0, 7, 0.00,60.00,Tuesday
545,20.792202563391706
546,28.103794802458688
586,23.85795676861918
587,37.702456229273128
627,23.210322198138216
628,43.619596064338868
668,22.882866815230334
669,44.16173085995322
709,22.73226769695976
710,44.52535180409498
750,22.928551303841869
751,43.866048701364608
2,3, 1, 3, 0, 8, 0.00,60.00,Tuesday
8,15.6
9,87.0
10,18.32609333433374
12,49714121.33842245
997,238856.91442005576
1031,0.0
1063,0.0
2,3, 1, 3, 0, 8, 0.00,60.00,Tuesday
545,20.8586285016597
546,28.01687932427744
586,23.882962789513255
587,39.40442210903983
627,23.412325183953194
628,44.40387323089179
668,23.245495169500019
669,44.2935465175651
709,22.888095837560586
710,45.489121815020919
750,23.17243043242847
751,44.26953840662355
2,3, 1, 3, 0, 9, 0.00,60.00,Tuesday
8,15.0
9,81.0
10,18.32609333433374
12,93651157.84806799
997,4388643.6786091369
1031,0.0
1063,0.0
2,3, 1, 3, 0, 9, 0.00,60.00,Tuesday
545,20.995465406597199
546,27.782113177744955
586,23.8881292249474
587,41.58448613045586
627,23.769064906312676
628,44.835720757432088
668,23.69569972939755
669,44.27246242805949
709,23.632716503767548
710,45.00552747321375
750,23.65841537350061
751,44.092709622765827
2,3, 1, 3, 0,10, 0.00,60.00,Tuesday
8,12.2
9,67.0
10,18.32609333433374
12,94378212.23774344
997,5115698.068284611
1031,0.0
1063,0.0
2,3, 1, 3, 0,10, 0.00,60.00,Tuesday
545,21.188663580874633
546,27.481504111420166
586,23.8890429151672
587,42.269863313967729
627,23.861447437853039
628,44.66896077671275
668,23.834095803015367
669,44.077725827040847
709,23.833661373176289
710,44.70125834183222
750,23.81810195869955
751,43.86377581971209
2,3, 1, 3, 0,11, 0.00,60.00,Tuesday
8,12.2
9,57.0
10,18.32609333433374
12,96887119.89707887
997,7624605.727620044
1031,0.0
1063,0.0
2,3, 1, 3, 0,11, 0.00,60.00,Tuesday
545,21.560712302701004
546,26.889189087408089
586,23.88894923225216
587,41.65000313733702
627,23.880998560507146
628,43.4723056119402
668,23.871663230584426
669,43.22581732653846
709,23.87535027572034
710,43.786958170066018
750,23.86532417867256
751,43.160318772206867
2,3, 1, 3, 0,12, 0.00,60.00,Tuesday
8,13.9
9,55.0
10,18.32609333433374
12,99270443.4564051
997,10007929.286946265
1031,0.0
1063,0.0
2,3, 1, 3, 0,12, 0.00,60.00,Tuesday
545,22.144679349448468
546,25.92327871132799
586,23.88917676241561
587,41.380746188474237
627,23.887155527133694
628,42.372479089201288
668,23.88565804132927
669,42.637439428011379
709,23.88726346361789
710,43.13668005875413
750,23.88403762395765
751,42.61978029703498
2,3, 1, 3, 0,13, 0.00,60.00,Tuesday
8,13.3
9,57.0
10,18.32609333433374
12,88870557.86177014
997,6638665.3875994379
1031,0.0
1063,0.0
2,3, 1, 3, 0,13, 0.00,60.00,Tuesday
545,22.393569402804908
546,25.53198670445414
586,23.88920546548873
587,40.672978887053968
627,23.88893943521633
628,41.55568721965801
668,23.888321571697703
669,41.91887932312019
709,23.888947421529246
710,42.26537926045266
750,23.887625981184955
751,41.93941705497968
2,3, 1, 3, 0,14, 0.00,60.00,Tuesday
8,11.1
9,64.0
10,18.32609333433374
12,96686637.50447367
997,7424123.335014839
1031,0.0
1063,0.0
2,3, 1, 3, 0,14, 0.00,60.00,Tuesday
545,22.516247749278198
546,25.341461004989165
586,23.8889542936748
587,40.23714192221846
627,23.889153719466518
628,40.93941719126508
668,23.889134611576368
669,41.3772983476259
709,23.88926399974601
710,41.594644390279089
750,23.888873641551795
751,41.433436391348767
2,3, 1, 3, 0,15, 0.00,60.00,Tuesday
8,9.4
9,74.0